HEADER
"PSFversion" "1.00"
"Av" "av"
"Bv" "bv"
"Cv" "cv"
"OUTv" "outv"
"gnd!v" "0v"
