HEADER
"PSFversion" "1.00"
"Av" "av"
"Bv" "bv"
"Cv" "cv"
"VCCv" "vccv"
"VSSv" "vssv"
"OUTv" "outv"
