HEADER
"PSFversion" "1.00"
"__NEXT_FILE__" "NAND3_SCHEM_BASIC_TB"
