HEADER
"PSFversion" "1.00"
"Time Stamp" "Nov 14 05:09:57 2021"
TYPE
"variable" STRUCT(
"value" FLOAT DOUBLE
) PROP( "key" "element" )
VALUE
"VCC" "variable" ( 1 ) PROP( )
"n_fin" "variable" ( 8 ) PROP( )
"p_fin" "variable" ( 4 ) PROP( )
"C" "variable" ( 0 ) PROP( )
"B" "variable" ( 1 ) PROP( )
"A" "variable" ( 1 ) PROP( )
"TEMPDC" "variable" ( 25.0 ) PROP( )
END
